 VARIABLES = "X", "Y", "Z","P", "U", "V", "W", "b"
 ZONE I=           18 , J=           18 , K=           18 , F=POINT
    3.02300E-01    3.02300E-01    3.02300E-01    4.41687E-02    7.14863E-02    3.80294E-02    3.35670E-03
    1.39594E-11
    9.06900E-01    3.02300E-01    3.02300E-01    4.37522E-02    9.63941E-02    1.42909E-01    9.73496E-03
    2.59058E-11
    1.51150E+00    3.02300E-01    3.02300E-01    2.44960E-02    1.09657E-01    2.30608E-01    1.49536E-02
    2.78237E-11
    2.11610E+00    3.02300E-01    3.02300E-01    7.13320E-03    1.09625E-01    2.90483E-01    1.83577E-02
    2.47722E-11
    2.72070E+00    3.02300E-01    3.02300E-01    9.14627E-04    9.63346E-02    3.15313E-01    1.95432E-02
    2.17711E-11
    3.32530E+00    3.02300E-01    3.02300E-01    9.65498E-03    7.14105E-02    3.02104E-01    1.83694E-02
    1.81463E-11
    3.92990E+00    3.02300E-01    3.02300E-01    3.09630E-02    3.78764E-02    2.52452E-01    1.49784E-02
    1.38499E-11
    4.53450E+00    3.02300E-01    3.02300E-01    5.75813E-02   -2.12355E-04    1.72348E-01    9.77923E-03
    9.07963E-12
    5.13910E+00    3.02300E-01    3.02300E-01    8.06103E-02   -3.82595E-02    7.14578E-02    3.40006E-03
    3.99896E-12
    5.74370E+00    3.02300E-01    3.02300E-01    9.33226E-02   -7.16825E-02   -3.80464E-02   -3.38847E-03
   -1.23624E-12
    6.34830E+00    3.02300E-01    3.02300E-01    9.38907E-02   -9.64618E-02   -1.42957E-01   -9.76662E-03
   -6.47236E-12
    6.95290E+00    3.02300E-01    3.02300E-01    8.58091E-02   -1.09619E-01   -2.30622E-01   -1.49648E-02
   -1.15444E-11
    7.55750E+00    3.02300E-01    3.02300E-01    7.58609E-02   -1.09573E-01   -2.90472E-01   -1.83563E-02
   -1.62666E-11
    8.16210E+00    3.02300E-01    3.02300E-01    7.06570E-02   -9.63287E-02   -3.15290E-01   -1.95325E-02
   -2.04015E-11
    8.76670E+00    3.02300E-01    3.02300E-01    7.34642E-02   -7.14780E-02   -3.02082E-01   -1.83519E-02
   -2.39374E-11
    9.37130E+00    3.02300E-01    3.02300E-01    8.28996E-02   -3.80153E-02   -2.52441E-01   -1.49571E-02
   -2.74900E-11
    9.97590E+00    3.02300E-01    3.02300E-01    9.42263E-02    1.64251E-05   -1.72345E-01   -9.75671E-03
   -2.59259E-11
    1.05805E+01    3.02300E-01    3.02300E-01    1.07480E-01    3.80266E-02   -7.15027E-02   -3.34297E-03
   -1.40865E-11
    3.02300E-01    9.06900E-01    3.02300E-01    3.42364E-02    1.72313E-01    4.38931E-05    9.76694E-03
    2.40934E-11
    9.06900E-01    9.06900E-01    3.02300E-01    5.69778E-02    1.80950E-01    9.62900E-02    2.82009E-02
    3.46839E-11
    1.51150E+00    9.06900E-01    3.02300E-01    5.20446E-02    1.67744E-01    1.81044E-01    4.32366E-02
    3.70375E-11
    2.11610E+00    9.06900E-01    3.02300E-01    4.72938E-02    1.34284E-01    2.43948E-01    5.30426E-02
    3.37343E-11
    2.72070E+00    9.06900E-01    3.02300E-01    4.72000E-02    8.46178E-02    2.77415E-01    5.64449E-02
    2.97055E-11
    3.32530E+00    9.06900E-01    3.02300E-01    5.32442E-02    2.47425E-02    2.77407E-01    5.30373E-02
    2.46993E-11
    3.92990E+00    9.06900E-01    3.02300E-01    6.35309E-02   -3.81183E-02    2.43927E-01    4.32320E-02
    1.87982E-11
    4.53450E+00    9.06900E-01    3.02300E-01    7.37855E-02   -9.63823E-02    1.81024E-01    2.82115E-02
    1.22693E-11
    5.13910E+00    9.06900E-01    3.02300E-01    7.94099E-02   -1.43023E-01    9.62916E-02    9.78676E-03
    5.33361E-12
    5.74370E+00    9.06900E-01    3.02300E-01    7.76771E-02   -1.72415E-01   -4.29032E-05   -9.82058E-03
   -1.80527E-12
    6.34830E+00    9.06900E-01    3.02300E-01    6.90405E-02   -1.81014E-01   -9.63605E-02   -2.82459E-02
   -8.94988E-12
    6.95290E+00    9.06900E-01    3.02300E-01    5.69562E-02   -1.67782E-01   -1.81049E-01   -4.32669E-02
   -1.58871E-11
    7.55750E+00    9.06900E-01    3.02300E-01    4.63466E-02   -1.34315E-01   -2.43900E-01   -5.30712E-02
   -2.23706E-11
    8.16210E+00    9.06900E-01    3.02300E-01    4.14525E-02   -8.46465E-02   -2.77339E-01   -5.64752E-02
   -2.80808E-11
    8.76670E+00    9.06900E-01    3.02300E-01    4.40619E-02   -2.47697E-02   -2.77334E-01   -5.30671E-02
   -3.28552E-11
    9.37130E+00    9.06900E-01    3.02300E-01    5.28868E-02    3.80903E-02   -2.43879E-01   -4.32567E-02
   -3.68592E-11
    9.97590E+00    9.06900E-01    3.02300E-01    6.42912E-02    9.63490E-02   -1.81001E-01   -2.82258E-02
   -3.49756E-11
    1.05805E+01    9.06900E-01    3.02300E-01    9.16393E-02    1.42944E-01   -9.63833E-02   -9.74363E-03
   -2.44945E-11
    3.02300E-01    1.51150E+00    3.02300E-01    1.53609E-02    2.52432E-01   -3.79724E-02    1.49724E-02
    2.39667E-11
    9.06900E-01    1.51150E+00    3.02300E-01    5.14959E-02    2.43879E-01    3.80548E-02    4.32269E-02
    3.59688E-11
    1.51150E+00    1.51150E+00    3.02300E-01    5.62231E-02    2.05842E-01    1.09585E-01    6.62722E-02
    3.85095E-11
    2.11610E+00    1.51150E+00    3.02300E-01    5.99905E-02    1.42952E-01    1.67896E-01    8.13103E-02
    3.51106E-11
    2.72070E+00    1.51150E+00    3.02300E-01    6.28233E-02    6.28068E-02    2.05948E-01    8.65325E-02
    3.08730E-11
    3.32530E+00    1.51150E+00    3.02300E-01    6.44897E-02   -2.49158E-02    2.19146E-01    8.13108E-02
    2.56084E-11
    3.92990E+00    1.51150E+00    3.02300E-01    6.48301E-02   -1.09628E-01    2.05903E-01    6.62775E-02
    1.94325E-11
    4.53450E+00    1.51150E+00    3.02300E-01    6.39068E-02   -1.81109E-01    1.67823E-01    4.32491E-02
    1.26242E-11
    5.13910E+00    1.51150E+00    3.02300E-01    6.20438E-02   -2.30740E-01    1.09509E-01    1.50063E-02
    5.40969E-12
    5.74370E+00    1.51150E+00    3.02300E-01    5.97426E-02   -2.52539E-01    3.80012E-02   -1.50429E-02
   -2.00974E-12
    6.34830E+00    1.51150E+00    3.02300E-01    5.74886E-02   -2.43884E-01   -3.80759E-02   -4.32750E-02
   -9.44333E-12
    6.95290E+00    1.51150E+00    3.02300E-01    5.55554E-02   -2.05822E-01   -1.09552E-01   -6.62869E-02
   -1.66835E-11
    7.55750E+00    1.51150E+00    3.02300E-01    5.39557E-02   -1.42942E-01   -1.67814E-01   -8.13054E-02
   -2.34824E-11
    8.16210E+00    1.51150E+00    3.02300E-01    5.25933E-02   -6.28231E-02   -2.05839E-01   -8.65204E-02
   -2.95095E-11
    8.76670E+00    1.51150E+00    3.02300E-01    5.15081E-02    2.48735E-02   -2.19042E-01   -8.13025E-02
   -3.45642E-11
    9.37130E+00    1.51150E+00    3.02300E-01    5.10235E-02    1.09572E-01   -2.05824E-01   -6.62795E-02
   -3.87403E-11
    9.97590E+00    1.51150E+00    3.02300E-01    5.16924E-02    1.81054E-01   -1.67776E-01   -4.32581E-02
   -3.66850E-11
    1.05805E+01    1.51150E+00    3.02300E-01    8.08004E-02    2.30621E-01   -1.09588E-01   -1.49546E-02
   -2.46706E-11
    3.02300E-01    2.11610E+00    3.02300E-01   -1.48530E-03    3.02092E-01   -7.14669E-02    1.83675E-02
    2.13889E-11
    9.06900E-01    2.11610E+00    3.02300E-01    4.42903E-02    2.77374E-01   -2.47828E-02    5.30356E-02
    3.26627E-11
    1.51150E+00    2.11610E+00    3.02300E-01    5.79666E-02    2.19101E-01    2.48889E-02    8.13091E-02
    3.50198E-11
    2.11610E+00    2.11610E+00    3.02300E-01    6.94887E-02    1.34368E-01    7.15624E-02    9.97634E-02
    3.18615E-11
    2.72070E+00    2.11610E+00    3.02300E-01    7.50616E-02    3.34112E-02    1.09604E-01    1.06173E-01
    2.79538E-11
    3.32530E+00    2.11610E+00    3.02300E-01    7.29894E-02   -7.15773E-02    1.34419E-01    9.97656E-02
    2.31233E-11
    3.92990E+00    2.11610E+00    3.02300E-01    6.46840E-02   -1.67922E-01    1.43016E-01    8.13170E-02
    1.74816E-11
    4.53450E+00    2.11610E+00    3.02300E-01    5.40789E-02   -2.43997E-01    1.34363E-01    5.30596E-02
    1.12861E-11
    5.13910E+00    2.11610E+00    3.02300E-01    4.58685E-02   -2.90630E-01    1.09509E-01    1.84086E-02
    4.73778E-12
    5.74370E+00    2.11610E+00    3.02300E-01    4.33897E-02   -3.02207E-01    7.14590E-02   -1.84540E-02
   -1.99288E-12
    6.34830E+00    2.11610E+00    3.02300E-01    4.71048E-02   -2.77341E-01    2.48013E-02   -5.30838E-02
   -8.74905E-12
    6.95290E+00    2.11610E+00    3.02300E-01    5.44135E-02   -2.19037E-01   -2.48415E-02   -8.13085E-02
   -1.53594E-11
    7.55750E+00    2.11610E+00    3.02300E-01    6.09460E-02   -1.34326E-01   -7.14874E-02   -9.97285E-02
   -2.16088E-11
    8.16210E+00    2.11610E+00    3.02300E-01    6.27564E-02   -3.34182E-02   -1.09513E-01   -1.06125E-01
   -2.71948E-11
    8.76670E+00    2.11610E+00    3.02300E-01    5.83500E-02    7.15212E-02   -1.34330E-01   -9.97262E-02
   -3.19255E-11
    9.37130E+00    2.11610E+00    3.02300E-01    4.95369E-02    1.67839E-01   -1.42942E-01   -8.13022E-02
   -3.58831E-11
    9.97590E+00    2.11610E+00    3.02300E-01    4.07565E-02    2.43914E-01   -1.34308E-01   -5.30672E-02
   -3.39606E-11
    1.05805E+01    2.11610E+00    3.02300E-01    6.95930E-02    2.90476E-01   -1.09555E-01   -1.83516E-02
   -2.24747E-11
    3.02300E-01    2.72070E+00    3.02300E-01   -7.55518E-03    3.15305E-01   -9.63708E-02    1.95451E-02
    1.84069E-11
    9.06900E-01    2.72070E+00    3.02300E-01    4.01443E-02    2.77392E-01   -8.46432E-02    5.64466E-02
    2.80806E-11
    1.51150E+00    2.72070E+00    3.02300E-01    5.75675E-02    2.05912E-01   -6.28231E-02    8.65338E-02
    3.00643E-11
    2.11610E+00    2.72070E+00    3.02300E-01    7.22595E-02    1.09560E-01   -3.34200E-02    1.06174E-01
    2.73103E-11
    2.72070E+00    2.72070E+00    3.02300E-01    7.89242E-02   -2.50311E-05    2.09446E-05    1.12996E-01
    2.39100E-11
    3.32530E+00    2.72070E+00    3.02300E-01    7.53295E-02   -1.09609E-01    3.34629E-02    1.06176E-01
    1.97184E-11
    3.92990E+00    2.72070E+00    3.02300E-01    6.35538E-02   -2.05960E-01    6.28688E-02    8.65411E-02
    1.48393E-11
    4.53450E+00    2.72070E+00    3.02300E-01    4.91014E-02   -2.77451E-01    8.46911E-02    5.64676E-02
    9.49749E-12
    5.13910E+00    2.72070E+00    3.02300E-01    3.84215E-02   -3.15464E-01    9.63001E-02    1.95909E-02
    3.86250E-12
    5.74370E+00    2.72070E+00    3.02300E-01    3.59746E-02   -3.15425E-01    9.62982E-02   -1.96378E-02
   -1.92990E-12
    6.34830E+00    2.72070E+00    3.02300E-01    4.21878E-02   -2.77350E-01    8.46859E-02   -5.64894E-02
   -7.76108E-12
    6.95290E+00    2.72070E+00    3.02300E-01    5.32800E-02   -2.05836E-01    6.28619E-02   -8.65246E-02
   -1.35001E-11
    7.55750E+00    2.72070E+00    3.02300E-01    6.31028E-02   -1.09507E-01    3.34566E-02   -1.06126E-01
   -1.89719E-11
    8.16210E+00    2.72070E+00    3.02300E-01    6.61571E-02    2.30357E-05    1.72606E-05   -1.12933E-01
   -2.39135E-11
    8.76670E+00    2.72070E+00    3.02300E-01    6.03307E-02    1.09551E-01   -3.34196E-02   -1.06124E-01
   -2.81447E-11
    9.37130E+00    2.72070E+00    3.02300E-01    4.80366E-02    2.05870E-01   -6.28182E-02   -8.65190E-02
   -3.17235E-11
    9.97590E+00    2.72070E+00    3.02300E-01    3.53086E-02    2.77359E-01   -8.46335E-02   -5.64734E-02
   -3.01100E-11
    1.05805E+01    2.72070E+00    3.02300E-01    6.32465E-02    3.15297E-01   -9.63058E-02   -1.95303E-02
   -1.99823E-11
    3.02300E-01    3.32530E+00    3.02300E-01    5.84198E-04    2.90478E-01   -1.09659E-01    1.83654E-02
    1.46052E-11
    9.06900E-01    3.32530E+00    3.02300E-01    4.14936E-02    2.43933E-01   -1.34304E-01    5.30495E-02
    2.22894E-11
    1.51150E+00    3.32530E+00    3.02300E-01    5.55110E-02    1.67868E-01   -1.42963E-01    8.13161E-02
    2.38574E-11
    2.11610E+00    3.32530E+00    3.02300E-01    6.71256E-02    7.15231E-02   -1.34375E-01    9.97678E-02
    2.16535E-11
    2.72070E+00    3.32530E+00    3.02300E-01    7.25505E-02   -3.34649E-02   -1.09566E-01    1.06177E-01
    1.89264E-11
    3.32530E+00    3.32530E+00    3.02300E-01    7.02091E-02   -1.34418E-01   -7.15317E-02    9.97695E-02
    1.55624E-11
    3.92990E+00    3.32530E+00    3.02300E-01    6.16423E-02   -2.19149E-01   -2.48635E-02    8.13215E-02
    1.16476E-11
    4.53450E+00    3.32530E+00    3.02300E-01    5.08917E-02   -2.77433E-01    2.48036E-02    5.30648E-02
    7.36410E-12
    5.13910E+00    3.32530E+00    3.02300E-01    4.27206E-02   -3.02245E-01    7.14753E-02    1.84139E-02
    2.84565E-12
    5.74370E+00    3.32530E+00    3.02300E-01    4.04708E-02   -2.90600E-01    1.09522E-01   -1.84494E-02
   -1.80644E-12
    6.34830E+00    3.32530E+00    3.02300E-01    4.45317E-02   -2.43910E-01    1.34355E-01   -5.30807E-02
   -6.51001E-12
    6.95290E+00    3.32530E+00    3.02300E-01    5.21747E-02   -1.67812E-01    1.42982E-01   -8.13072E-02
   -1.11746E-11
    7.55750E+00    3.32530E+00    3.02300E-01    5.88946E-02   -7.14816E-02    1.34364E-01   -9.97284E-02
   -1.56689E-11
    8.16210E+00    3.32530E+00    3.02300E-01    6.06460E-02    3.34647E-02    1.09546E-01   -1.06125E-01
   -1.97783E-11
    8.76670E+00    3.32530E+00    3.02300E-01    5.58859E-02    1.34375E-01    7.15233E-02   -9.97267E-02
   -2.33446E-11
    9.37130E+00    3.32530E+00    3.02300E-01    4.64344E-02    2.19081E-01    2.48851E-02   -8.13022E-02
   -2.63980E-11
    9.97590E+00    3.32530E+00    3.02300E-01    3.68467E-02    2.77362E-01   -2.47466E-02   -5.30663E-02
   -2.51242E-11
    1.05805E+01    3.32530E+00    3.02300E-01    6.42904E-02    3.02093E-01   -7.14403E-02   -1.83507E-02
   -1.67157E-11
    3.02300E-01    3.92990E+00    3.02300E-01    2.03291E-02    2.30609E-01   -1.09715E-01    1.49722E-02
    1.02560E-11
    9.06900E-01    3.92990E+00    3.02300E-01    4.75353E-02    1.81039E-01   -1.67773E-01    4.32535E-02
    1.56841E-11
    1.51150E+00    3.92990E+00    3.02300E-01    5.24471E-02    1.09564E-01   -2.05859E-01    6.62869E-02
    1.68112E-11
    2.11610E+00    3.92990E+00    3.02300E-01    5.60631E-02    2.48509E-02   -2.19113E-01    8.13210E-02
    1.52759E-11
    2.72070E+00    3.92990E+00    3.02300E-01    5.83925E-02   -6.28709E-02   -2.05926E-01    8.65425E-02
    1.33549E-11
    3.32530E+00    3.92990E+00    3.02300E-01    5.94072E-02   -1.43012E-01   -1.67888E-01    8.13216E-02
    1.09607E-11
    3.92990E+00    3.92990E+00    3.02300E-01    5.91786E-02   -2.05900E-01   -1.09591E-01    6.62894E-02
    8.15311E-12
    4.53450E+00    3.92990E+00    3.02300E-01    5.79570E-02   -2.43947E-01   -3.80748E-02    4.32618E-02
    5.06356E-12
    5.13910E+00    3.92990E+00    3.02300E-01    5.61722E-02   -2.52568E-01    3.80271E-02    1.50185E-02
    1.79018E-12
    5.74370E+00    3.92990E+00    3.02300E-01    5.43095E-02   -2.30725E-01    1.09533E-01   -1.50333E-02
   -1.59709E-12
    6.34830E+00    3.92990E+00    3.02300E-01    5.27018E-02   -1.81055E-01    1.67818E-01   -4.32693E-02
   -5.04711E-12
    6.95290E+00    3.92990E+00    3.02300E-01    5.13782E-02   -1.09551E-01    2.05858E-01   -6.62855E-02
   -8.50525E-12
    7.55750E+00    3.92990E+00    3.02300E-01    5.01029E-02   -2.48372E-02    2.19071E-01   -8.13070E-02
   -1.18834E-11
    8.16210E+00    3.92990E+00    3.02300E-01    4.85978E-02    6.28709E-02    2.05868E-01   -8.65233E-02
   -1.50220E-11
    8.76670E+00    3.92990E+00    3.02300E-01    4.67981E-02    1.42996E-01    1.67846E-01   -8.13052E-02
   -1.77916E-11
    9.37130E+00    3.92990E+00    3.02300E-01    4.49929E-02    2.05876E-01    1.09591E-01   -6.62808E-02
   -2.01991E-11
    9.97590E+00    3.92990E+00    3.02300E-01    4.38685E-02    2.43922E-01    3.81262E-02   -4.32567E-02
   -1.92903E-11
    1.05805E+01    3.92990E+00    3.02300E-01    7.07146E-02    2.52458E-01   -3.79508E-02   -1.49564E-02
   -1.28775E-11
    3.02300E-01    4.53450E+00    3.02300E-01    4.46104E-02    1.42923E-01   -9.65270E-02    9.77545E-03
    5.57471E-12
    9.06900E-01    4.53450E+00    3.02300E-01    5.49107E-02    9.63058E-02   -1.81013E-01    2.82388E-02
    8.59616E-12
    1.51150E+00    4.53450E+00    3.02300E-01    4.91309E-02    3.80427E-02   -2.43921E-01    4.32617E-02
    9.28411E-12
    2.11610E+00    4.53450E+00    3.02300E-01    4.34884E-02   -2.48197E-02   -2.77410E-01    5.30653E-02
    8.50739E-12
    2.72070E+00    4.53450E+00    3.02300E-01    4.22618E-02   -8.46947E-02   -2.77431E-01    5.64694E-02
    7.48934E-12
    3.32530E+00    4.53450E+00    3.02300E-01    4.71364E-02   -1.34358E-01   -2.43978E-01    5.30646E-02
    6.16405E-12
    3.92990E+00    4.53450E+00    3.02300E-01    5.64917E-02   -1.67817E-01   -1.81090E-01    4.32611E-02
    4.55744E-12
    4.53450E+00    4.53450E+00    3.02300E-01    6.62574E-02   -1.81039E-01   -9.63590E-02    2.82401E-02
    2.74589E-12
    5.13910E+00    4.53450E+00    3.02300E-01    7.19145E-02   -1.72427E-01   -1.12840E-05    9.81112E-03
    7.91378E-13
    5.74370E+00    4.53450E+00    3.02300E-01    7.06628E-02   -1.43020E-01    9.63284E-02   -9.80411E-03
   -1.26198E-12
    6.34830E+00    4.53450E+00    3.02300E-01    6.27357E-02   -9.63613E-02    1.81041E-01   -2.82395E-02
   -3.38734E-12
    6.95290E+00    4.53450E+00    3.02300E-01    5.12863E-02   -3.80771E-02    2.43912E-01   -4.32700E-02
   -5.55979E-12
    7.55750E+00    4.53450E+00    3.02300E-01    4.09512E-02    2.48032E-02    2.77366E-01   -5.30809E-02
   -7.73211E-12
    8.16210E+00    4.53450E+00    3.02300E-01    3.57629E-02    8.46946E-02    2.77373E-01   -5.64876E-02
   -9.80298E-12
    8.76670E+00    4.53450E+00    3.02300E-01    3.73463E-02    1.34372E-01    2.43934E-01   -5.30788E-02
   -1.16783E-11
    9.37130E+00    4.53450E+00    3.02300E-01    4.42201E-02    1.67843E-01    1.81083E-01   -4.32653E-02
   -1.33449E-11
    9.97590E+00    4.53450E+00    3.02300E-01    5.26003E-02    1.81065E-01    9.63981E-02   -2.82286E-02
   -1.28141E-11
    1.05805E+01    4.53450E+00    3.02300E-01    7.68539E-02    1.72376E-01    1.29492E-04   -9.75768E-03
   -8.60025E-12
    3.02300E-01    5.13910E+00    3.02300E-01    6.51932E-02    3.80006E-02   -7.16903E-02    3.40144E-03
    7.61967E-13
    9.06900E-01    5.13910E+00    3.02300E-01    5.95494E-02   -3.80263E-05   -1.72425E-01    9.81488E-03
    1.32439E-12
    1.51150E+00    5.13910E+00    3.02300E-01    4.63186E-02   -3.80604E-02   -2.52560E-01    1.50201E-02
    1.58834E-12
    2.11610E+00    5.13910E+00    3.02300E-01    3.44095E-02   -7.14936E-02   -3.02238E-01    1.84151E-02
    1.62451E-12
    2.72070E+00    5.13910E+00    3.02300E-01    3.07976E-02   -9.63057E-02   -3.15459E-01    1.95930E-02
    1.56681E-12
    3.32530E+00    5.13910E+00    3.02300E-01    3.82401E-02   -1.09506E-01   -2.90627E-01    1.84133E-02
    1.36795E-12
    3.92990E+00    5.13910E+00    3.02300E-01    5.40077E-02   -1.09504E-01   -2.30739E-01    1.50171E-02
    1.01467E-12
    4.53450E+00    5.13910E+00    3.02300E-01    7.12193E-02   -9.63024E-02   -1.43019E-01    9.81029E-03
    5.25050E-13
    5.13910E+00    5.13910E+00    3.02300E-01    8.21071E-02   -7.14922E-02   -3.80511E-02    3.41654E-03
   -7.41672E-14
    5.74370E+00    5.13910E+00    3.02300E-01    8.16632E-02   -3.80615E-02    7.15025E-02   -3.39583E-03
   -7.61629E-13
    6.34830E+00    5.13910E+00    3.02300E-01    6.99727E-02   -3.73984E-05    1.72428E-01   -9.80494E-03
   -1.52902E-12
    6.95290E+00    5.13910E+00    3.02300E-01    5.21703E-02    3.79980E-02    2.52554E-01   -1.50347E-02
   -2.37593E-12
    7.55750E+00    5.13910E+00    3.02300E-01    3.60627E-02    7.14581E-02    3.02219E-01   -1.84500E-02
   -3.29311E-12
    8.16210E+00    5.13910E+00    3.02300E-01    2.85133E-02    9.63056E-02    3.15435E-01   -1.96357E-02
   -4.23886E-12
    8.76670E+00    5.13910E+00    3.02300E-01    3.22526E-02    1.09540E-01    2.90609E-01   -1.84478E-02
   -5.15897E-12
    9.37130E+00    5.13910E+00    3.02300E-01    4.46009E-02    1.09563E-01    2.30736E-01   -1.50302E-02
   -6.02266E-12
    9.97590E+00    5.13910E+00    3.02300E-01    5.87627E-02    9.63674E-02    1.43039E-01   -9.79641E-03
   -5.88139E-12
    1.05805E+01    5.13910E+00    3.02300E-01    7.62817E-02    7.15014E-02    3.82089E-02   -3.38208E-03
   -4.01114E-12
    3.02300E-01    5.74370E+00    3.02300E-01    7.62817E-02   -7.15015E-02   -3.82089E-02   -3.38208E-03
   -4.01115E-12
    9.06900E-01    5.74370E+00    3.02300E-01    5.87627E-02   -9.63675E-02   -1.43039E-01   -9.79642E-03
   -5.88143E-12
    1.51150E+00    5.74370E+00    3.02300E-01    4.46009E-02   -1.09563E-01   -2.30736E-01   -1.50302E-02
   -6.02261E-12
    2.11610E+00    5.74370E+00    3.02300E-01    3.22526E-02   -1.09540E-01   -2.90609E-01   -1.84478E-02
   -5.15895E-12
    2.72070E+00    5.74370E+00    3.02300E-01    2.85133E-02   -9.63056E-02   -3.15435E-01   -1.96357E-02
   -4.23880E-12
    3.32530E+00    5.74370E+00    3.02300E-01    3.60627E-02   -7.14581E-02   -3.02219E-01   -1.84500E-02
   -3.29311E-12
    3.92990E+00    5.74370E+00    3.02300E-01    5.21703E-02   -3.79979E-02   -2.52554E-01   -1.50347E-02
   -2.37596E-12
    4.53450E+00    5.74370E+00    3.02300E-01    6.99727E-02    3.74671E-05   -1.72428E-01   -9.80495E-03
   -1.52901E-12
    5.13910E+00    5.74370E+00    3.02300E-01    8.16632E-02    3.80616E-02   -7.15025E-02   -3.39583E-03
   -7.61615E-13
    5.74370E+00    5.74370E+00    3.02300E-01    8.21071E-02    7.14922E-02    3.80512E-02    3.41655E-03
   -7.41574E-14
    6.34830E+00    5.74370E+00    3.02300E-01    7.12193E-02    9.63025E-02    1.43019E-01    9.81030E-03
    5.25069E-13
    6.95290E+00    5.74370E+00    3.02300E-01    5.40077E-02    1.09504E-01    2.30739E-01    1.50171E-02
    1.01466E-12
    7.55750E+00    5.74370E+00    3.02300E-01    3.82401E-02    1.09506E-01    2.90627E-01    1.84133E-02
    1.36791E-12
    8.16210E+00    5.74370E+00    3.02300E-01    3.07977E-02    9.63057E-02    3.15459E-01    1.95930E-02
    1.56692E-12
    8.76670E+00    5.74370E+00    3.02300E-01    3.44095E-02    7.14936E-02    3.02238E-01    1.84151E-02
    1.62452E-12
    9.37130E+00    5.74370E+00    3.02300E-01    4.63186E-02    3.80604E-02    2.52560E-01    1.50201E-02
    1.58845E-12
    9.97590E+00    5.74370E+00    3.02300E-01    5.95494E-02    3.79576E-05    1.72424E-01    9.81489E-03
    1.32439E-12
    1.05805E+01    5.74370E+00    3.02300E-01    6.51931E-02   -3.80007E-02    7.16903E-02    3.40144E-03
    7.61951E-13
    3.02300E-01    6.34830E+00    3.02300E-01    7.68539E-02   -1.72376E-01   -1.29522E-04   -9.75769E-03
   -8.60024E-12
    9.06900E-01    6.34830E+00    3.02300E-01    5.26003E-02   -1.81065E-01   -9.63981E-02   -2.82287E-02
   -1.28141E-11
    1.51150E+00    6.34830E+00    3.02300E-01    4.42201E-02   -1.67843E-01   -1.81083E-01   -4.32653E-02
   -1.33449E-11
    2.11610E+00    6.34830E+00    3.02300E-01    3.73463E-02   -1.34372E-01   -2.43934E-01   -5.30788E-02
   -1.16783E-11
    2.72070E+00    6.34830E+00    3.02300E-01    3.57629E-02   -8.46945E-02   -2.77373E-01   -5.64876E-02
   -9.80301E-12
    3.32530E+00    6.34830E+00    3.02300E-01    4.09512E-02   -2.48032E-02   -2.77366E-01   -5.30809E-02
   -7.73226E-12
    3.92990E+00    6.34830E+00    3.02300E-01    5.12863E-02    3.80771E-02   -2.43912E-01   -4.32700E-02
   -5.55979E-12
    4.53450E+00    6.34830E+00    3.02300E-01    6.27357E-02    9.63613E-02   -1.81041E-01   -2.82395E-02
   -3.38742E-12
    5.13910E+00    6.34830E+00    3.02300E-01    7.06628E-02    1.43020E-01   -9.63284E-02   -9.80410E-03
   -1.26195E-12
    5.74370E+00    6.34830E+00    3.02300E-01    7.19145E-02    1.72427E-01    1.13138E-05    9.81114E-03
    7.91413E-13
    6.34830E+00    6.34830E+00    3.02300E-01    6.62574E-02    1.81039E-01    9.63591E-02    2.82401E-02
    2.74588E-12
    6.95290E+00    6.34830E+00    3.02300E-01    5.64917E-02    1.67817E-01    1.81090E-01    4.32612E-02
    4.55747E-12
    7.55750E+00    6.34830E+00    3.02300E-01    4.71364E-02    1.34358E-01    2.43978E-01    5.30646E-02
    6.16408E-12
    8.16210E+00    6.34830E+00    3.02300E-01    4.22618E-02    8.46947E-02    2.77431E-01    5.64694E-02
    7.48931E-12
    8.76670E+00    6.34830E+00    3.02300E-01    4.34884E-02    2.48197E-02    2.77410E-01    5.30653E-02
    8.50745E-12
    9.37130E+00    6.34830E+00    3.02300E-01    4.91309E-02   -3.80428E-02    2.43921E-01    4.32617E-02
    9.28408E-12
    9.97590E+00    6.34830E+00    3.02300E-01    5.49107E-02   -9.63059E-02    1.81013E-01    2.82388E-02
    8.59615E-12
    1.05805E+01    6.34830E+00    3.02300E-01    4.46104E-02   -1.42923E-01    9.65270E-02    9.77544E-03
    5.57474E-12
    3.02300E-01    6.95290E+00    3.02300E-01    7.07146E-02   -2.52458E-01    3.79507E-02   -1.49564E-02
   -1.28776E-11
    9.06900E-01    6.95290E+00    3.02300E-01    4.38685E-02   -2.43922E-01   -3.81262E-02   -4.32567E-02
   -1.92903E-11
    1.51150E+00    6.95290E+00    3.02300E-01    4.49929E-02   -2.05876E-01   -1.09591E-01   -6.62808E-02
   -2.01990E-11
    2.11610E+00    6.95290E+00    3.02300E-01    4.67981E-02   -1.42996E-01   -1.67846E-01   -8.13052E-02
   -1.77916E-11
    2.72070E+00    6.95290E+00    3.02300E-01    4.85978E-02   -6.28709E-02   -2.05868E-01   -8.65233E-02
   -1.50219E-11
    3.32530E+00    6.95290E+00    3.02300E-01    5.01029E-02    2.48372E-02   -2.19071E-01   -8.13071E-02
   -1.18834E-11
    3.92990E+00    6.95290E+00    3.02300E-01    5.13782E-02    1.09552E-01   -2.05858E-01   -6.62855E-02
   -8.50528E-12
    4.53450E+00    6.95290E+00    3.02300E-01    5.27018E-02    1.81056E-01   -1.67818E-01   -4.32693E-02
   -5.04711E-12
    5.13910E+00    6.95290E+00    3.02300E-01    5.43095E-02    2.30725E-01   -1.09533E-01   -1.50332E-02
   -1.59706E-12
    5.74370E+00    6.95290E+00    3.02300E-01    5.61722E-02    2.52568E-01   -3.80271E-02    1.50185E-02
    1.79012E-12
    6.34830E+00    6.95290E+00    3.02300E-01    5.79570E-02    2.43947E-01    3.80748E-02    4.32619E-02
    5.06369E-12
    6.95290E+00    6.95290E+00    3.02300E-01    5.91786E-02    2.05900E-01    1.09591E-01    6.62894E-02
    8.15307E-12
    7.55750E+00    6.95290E+00    3.02300E-01    5.94072E-02    1.43012E-01    1.67888E-01    8.13216E-02
    1.09606E-11
    8.16210E+00    6.95290E+00    3.02300E-01    5.83925E-02    6.28708E-02    2.05926E-01    8.65425E-02
    1.33549E-11
    8.76670E+00    6.95290E+00    3.02300E-01    5.60631E-02   -2.48510E-02    2.19113E-01    8.13210E-02
    1.52759E-11
    9.37130E+00    6.95290E+00    3.02300E-01    5.24471E-02   -1.09564E-01    2.05859E-01    6.62869E-02
    1.68113E-11
    9.97590E+00    6.95290E+00    3.02300E-01    4.75353E-02   -1.81039E-01    1.67773E-01    4.32535E-02
    1.56841E-11
    1.05805E+01    6.95290E+00    3.02300E-01    2.03291E-02   -2.30609E-01    1.09715E-01    1.49722E-02
    1.02560E-11
    3.02300E-01    7.55750E+00    3.02300E-01    6.42904E-02   -3.02093E-01    7.14403E-02   -1.83507E-02
   -1.67157E-11
    9.06900E-01    7.55750E+00    3.02300E-01    3.68467E-02   -2.77362E-01    2.47466E-02   -5.30663E-02
   -2.51241E-11
    1.51150E+00    7.55750E+00    3.02300E-01    4.64344E-02   -2.19081E-01   -2.48850E-02   -8.13023E-02
   -2.63980E-11
    2.11610E+00    7.55750E+00    3.02300E-01    5.58859E-02   -1.34375E-01   -7.15232E-02   -9.97267E-02
   -2.33447E-11
    2.72070E+00    7.55750E+00    3.02300E-01    6.06460E-02   -3.34647E-02   -1.09546E-01   -1.06125E-01
   -1.97784E-11
    3.32530E+00    7.55750E+00    3.02300E-01    5.88946E-02    7.14817E-02   -1.34364E-01   -9.97284E-02
   -1.56689E-11
    3.92990E+00    7.55750E+00    3.02300E-01    5.21747E-02    1.67812E-01   -1.42982E-01   -8.13072E-02
   -1.11745E-11
    4.53450E+00    7.55750E+00    3.02300E-01    4.45317E-02    2.43911E-01   -1.34355E-01   -5.30807E-02
   -6.51008E-12
    5.13910E+00    7.55750E+00    3.02300E-01    4.04708E-02    2.90600E-01   -1.09522E-01   -1.84494E-02
   -1.80639E-12
    5.74370E+00    7.55750E+00    3.02300E-01    4.27206E-02    3.02245E-01   -7.14753E-02    1.84139E-02
    2.84559E-12
    6.34830E+00    7.55750E+00    3.02300E-01    5.08917E-02    2.77433E-01   -2.48036E-02    5.30648E-02
    7.36410E-12
    6.95290E+00    7.55750E+00    3.02300E-01    6.16423E-02    2.19149E-01    2.48635E-02    8.13215E-02
    1.16477E-11
    7.55750E+00    7.55750E+00    3.02300E-01    7.02092E-02    1.34418E-01    7.15317E-02    9.97695E-02
    1.55624E-11
    8.16210E+00    7.55750E+00    3.02300E-01    7.25505E-02    3.34649E-02    1.09566E-01    1.06177E-01
    1.89265E-11
    8.76670E+00    7.55750E+00    3.02300E-01    6.71256E-02   -7.15231E-02    1.34375E-01    9.97678E-02
    2.16534E-11
    9.37130E+00    7.55750E+00    3.02300E-01    5.55110E-02   -1.67868E-01    1.42963E-01    8.13161E-02
    2.38575E-11
    9.97590E+00    7.55750E+00    3.02300E-01    4.14936E-02   -2.43933E-01    1.34304E-01    5.30495E-02
    2.22895E-11
    1.05805E+01    7.55750E+00    3.02300E-01    5.84188E-04   -2.90478E-01    1.09659E-01    1.83653E-02
    1.46052E-11
    3.02300E-01    8.16210E+00    3.02300E-01    6.32465E-02   -3.15297E-01    9.63058E-02   -1.95303E-02
   -1.99823E-11
    9.06900E-01    8.16210E+00    3.02300E-01    3.53086E-02   -2.77359E-01    8.46335E-02   -5.64734E-02
   -3.01101E-11
    1.51150E+00    8.16210E+00    3.02300E-01    4.80366E-02   -2.05870E-01    6.28182E-02   -8.65190E-02
   -3.17235E-11
    2.11610E+00    8.16210E+00    3.02300E-01    6.03307E-02   -1.09551E-01    3.34197E-02   -1.06124E-01
   -2.81448E-11
    2.72070E+00    8.16210E+00    3.02300E-01    6.61571E-02   -2.29626E-05   -1.72217E-05   -1.12933E-01
   -2.39135E-11
    3.32530E+00    8.16210E+00    3.02300E-01    6.31028E-02    1.09507E-01   -3.34565E-02   -1.06126E-01
   -1.89719E-11
    3.92990E+00    8.16210E+00    3.02300E-01    5.32800E-02    2.05836E-01   -6.28619E-02   -8.65246E-02
   -1.35001E-11
    4.53450E+00    8.16210E+00    3.02300E-01    4.21878E-02    2.77350E-01   -8.46859E-02   -5.64894E-02
   -7.76108E-12
    5.13910E+00    8.16210E+00    3.02300E-01    3.59746E-02    3.15425E-01   -9.62982E-02   -1.96378E-02
   -1.92988E-12
    5.74370E+00    8.16210E+00    3.02300E-01    3.84215E-02    3.15464E-01   -9.63001E-02    1.95909E-02
    3.86243E-12
    6.34830E+00    8.16210E+00    3.02300E-01    4.91015E-02    2.77451E-01   -8.46911E-02    5.64676E-02