 VARIABLES = "X", "Y", "Z","P", "U", "V", "W", "b"
 ZONE I=           20 , J=           20 , K=           20 , F=POINT
    2.72070E-01    2.72070E-01    2.72070E-01    4.86681E-02    6.34172E-02    3.61094E-02    2.45416E-03
    2.39172E-11
    8.16210E-01    2.72070E-01    2.72070E-01    4.80768E-02    8.45886E-02    1.32051E-01    7.18421E-03
    4.43931E-11
    1.36035E+00    2.72070E-01    2.72070E-01    3.10793E-02    9.74717E-02    2.15121E-01    1.12246E-02
    4.75629E-11
    1.90449E+00    2.72070E-01    2.72070E-01    1.34944E-02    1.00754E-01    2.77126E-01    1.41575E-02
    4.26906E-11
    2.44863E+00    2.72070E-01    2.72070E-01    2.93334E-03    9.41387E-02    3.11998E-01    1.57008E-02
    3.82455E-11
    2.99277E+00    2.72070E-01    2.72070E-01    3.86684E-03    7.82920E-02    3.16324E-01    1.57055E-02
    3.30355E-11
    3.53691E+00    2.72070E-01    2.72070E-01    1.67395E-02    5.47782E-02    2.89681E-01    1.41713E-02
    2.69268E-11
    4.08105E+00    2.72070E-01    2.72070E-01    3.80783E-02    2.59097E-02    2.34679E-01    1.12486E-02
    2.01713E-11
    4.62519E+00    2.72070E-01    2.72070E-01    6.18154E-02   -5.48148E-03    1.56704E-01    7.22385E-03
    1.29509E-11
    5.16933E+00    2.72070E-01    2.72070E-01    8.14561E-02   -3.63229E-02    6.33918E-02    2.49198E-03
    5.42866E-12
    5.71347E+00    2.72070E-01    2.72070E-01    9.23409E-02   -6.36014E-02   -3.61226E-02   -2.48280E-03
   -2.24546E-12
    6.25761E+00    2.72070E-01    2.72070E-01    9.31800E-02   -8.46555E-02   -1.32098E-01   -7.21278E-03
   -9.92429E-12
    6.80175E+00    2.72070E-01    2.72070E-01    8.62963E-02   -9.74326E-02   -2.15141E-01   -1.12347E-02
   -1.74538E-11
    7.34589E+00    2.72070E-01    2.72070E-01    7.65070E-02   -1.00687E-01   -2.77125E-01   -1.41552E-02
   -2.46581E-11
    7.89003E+00    2.72070E-01    2.72070E-01    6.91017E-02   -9.41004E-02   -3.11984E-01   -1.56889E-02
   -3.13277E-11
    8.43417E+00    2.72070E-01    2.72070E-01    6.77313E-02   -7.83142E-02   -3.16308E-01   -1.56863E-02
   -3.71626E-11
    8.97831E+00    2.72070E-01    2.72070E-01    7.30566E-02   -5.48691E-02   -2.89671E-01   -1.41479E-02
   -4.22341E-11
    9.52245E+00    2.72070E-01    2.72070E-01    8.27197E-02   -2.60585E-02   -2.34678E-01   -1.12245E-02
   -4.76834E-11
    1.00666E+01    2.72070E-01    2.72070E-01    9.27465E-02    5.28920E-03   -1.56708E-01   -7.20078E-03
   -4.48460E-11
    1.06107E+01    2.72070E-01    2.72070E-01    1.04244E-01    3.61042E-02   -6.34336E-02   -2.44286E-03
   -2.42750E-11
    2.72070E-01    8.16210E-01    2.72070E-01    4.03979E-02    1.56673E-01    5.32243E-03    7.21291E-03
    4.14997E-11
    8.16210E-01    8.16210E-01    2.72070E-01    5.89755E-02    1.65972E-01    9.45167E-02    2.09996E-02
    5.92106E-11
    1.36035E+00    8.16210E-01    2.72070E-01    5.36167E-02    1.59017E-01    1.74583E-01    3.27355E-02
    6.31341E-11
    1.90449E+00    8.16210E-01    2.72070E-01    4.72818E-02    1.36476E-01    2.37551E-01    4.12542E-02
    5.79131E-11
    2.44863E+00    8.16210E-01    2.72070E-01    4.41677E-02    1.00567E-01    2.77255E-01    4.57291E-02
    5.19291E-11
    2.99277E+00    8.16210E-01    2.72070E-01    4.65969E-02    5.48106E-02    2.89808E-01    4.57261E-02
    4.47134E-11
    3.53691E+00    8.16210E-01    2.72070E-01    5.44129E-02    3.68716E-03    2.73983E-01    4.12470E-02
    3.63336E-11
    4.08105E+00    8.16210E-01    2.72070E-01    6.51511E-02   -4.77987E-02    2.31333E-01    3.27306E-02
    2.71307E-11
    4.62519E+00    8.16210E-01    2.72070E-01    7.50205E-02   -9.46073E-02    1.66037E-01    2.10097E-02
    1.73491E-11
    5.16933E+00    8.16210E-01    2.72070E-01    8.03723E-02   -1.32157E-01    8.44934E-02    7.23091E-03
    7.19578E-12
    5.71347E+00    8.16210E-01    2.72070E-01    7.91100E-02   -1.56772E-01   -5.31287E-03   -7.25770E-03
   -3.14635E-12
    6.25761E+00    8.16210E-01    2.72070E-01    7.15056E-02   -1.66043E-01   -9.45911E-02   -2.10382E-02
   -1.35012E-11
    6.80175E+00    8.16210E-01    2.72070E-01    6.01141E-02   -1.59062E-01   -1.74605E-01   -3.27616E-02
   -2.36843E-11
    7.34589E+00    8.16210E-01    2.72070E-01    4.88381E-02   -1.36510E-01   -2.37527E-01   -4.12798E-02
   -3.34785E-11
    7.89003E+00    8.16210E-01    2.72070E-01    4.15087E-02   -1.00595E-01   -2.77202E-01   -4.57580E-02
   -4.26087E-11
    8.43417E+00    8.16210E-01    2.72070E-01    4.05277E-02   -5.48330E-02   -2.89748E-01   -4.57568E-02
   -5.06727E-11
    8.97831E+00    8.16210E-01    2.72070E-01    4.60713E-02   -3.70638E-03   -2.73936E-01   -4.12754E-02
   -5.75157E-11
    9.52245E+00    8.16210E-01    2.72070E-01    5.61356E-02    4.77774E-02   -2.31308E-01   -3.27520E-02
   -6.35210E-11
    1.00666E+01    8.16210E-01    2.72070E-01    6.73651E-02    9.45769E-02   -1.66029E-01   -2.10194E-02
   -6.00441E-11
    1.06107E+01    8.16210E-01    2.72070E-01    9.13793E-02    1.32085E-01   -8.45802E-02   -7.19198E-03
   -4.22800E-11
    2.72070E-01    1.36035E+00    2.72070E-01    2.34429E-02    2.34661E-01   -2.60033E-02    1.12430E-02
    4.14710E-11
    8.16210E-01    1.36035E+00    2.72070E-01    5.34311E-02    2.31289E-01    4.77339E-02    3.27255E-02
    6.16997E-11
    1.36035E+00    1.36035E+00    2.72070E-01    5.56391E-02    2.05227E-01    1.16913E-01    5.10102E-02
    6.58992E-11
    1.90449E+00    1.36035E+00    2.72070E-01    5.69869E-02    1.59052E-01    1.74647E-01    6.42899E-02
    6.04201E-11
    2.44863E+00    1.36035E+00    2.72070E-01    5.84368E-02    9.72968E-02    2.15279E-01    7.12700E-02
    5.40167E-11
    2.99277E+00    1.36035E+00    2.72070E-01    6.03493E-02    2.60140E-02    2.34829E-01    7.12696E-02
    4.63349E-11
    3.53691E+00    1.36035E+00    2.72070E-01    6.25749E-02   -4.78148E-02    2.31382E-01    6.42900E-02
    3.75076E-11
    4.08105E+00    1.36035E+00    2.72070E-01    6.45814E-02   -1.16960E-01    2.05281E-01    5.10156E-02
    2.78988E-11
    4.62519E+00    1.36035E+00    2.72070E-01    6.56927E-02   -1.74651E-01    1.59086E-01    3.27472E-02
    1.77590E-11
    5.16933E+00    1.36035E+00    2.72070E-01    6.53834E-02   -2.15244E-01    9.73251E-02    1.12741E-02
    7.28429E-12
    5.71347E+00    1.36035E+00    2.72070E-01    6.35115E-02   -2.34768E-01    2.60481E-02   -1.13012E-02
   -3.36357E-12
    6.25761E+00    1.36035E+00    2.72070E-01    6.03957E-02   -2.31314E-01   -4.77683E-02   -3.27694E-02
   -1.40367E-11
    6.80175E+00    1.36035E+00    2.72070E-01    5.67146E-02   -2.05222E-01   -1.16902E-01   -5.10299E-02
   -2.45780E-11
    7.34589E+00    1.36035E+00    2.72070E-01    5.32895E-02   -1.59047E-01   -1.74591E-01   -6.42961E-02
   -3.47901E-11
    7.89003E+00    1.36035E+00    2.72070E-01    5.08500E-02   -9.73048E-02   -2.15192E-01   -7.12701E-02
   -4.43996E-11
    8.43417E+00    1.36035E+00    2.72070E-01    4.98612E-02   -2.60384E-02   -2.34733E-01   -7.12692E-02
   -5.29842E-11
    8.97831E+00    1.36035E+00    2.72070E-01    5.04509E-02    4.77773E-02   -2.31299E-01   -6.42928E-02
   -6.03188E-11
    9.52245E+00    1.36035E+00    2.72070E-01    5.24370E-02    1.16916E-01   -2.05224E-01   -5.10225E-02
   -6.66626E-11
    1.00666E+01    1.36035E+00    2.72070E-01    5.54521E-02    1.74606E-01   -1.59055E-01   -3.27532E-02
   -6.29323E-11
    1.06107E+01    1.36035E+00    2.72070E-01    8.20660E-02    2.15139E-01   -9.74036E-02   -1.12252E-02
   -4.25218E-11
    2.72070E-01    1.90449E+00    2.72070E-01    6.14154E-03    2.89670E-01   -5.48346E-02    1.41688E-02
    3.76481E-11
    8.16210E-01    1.90449E+00    2.72070E-01    4.56052E-02    2.73954E-01   -3.73001E-03    4.12447E-02
    5.69364E-11
    1.36035E+00    1.90449E+00    2.72070E-01    5.57429E-02    2.31342E-01    4.77839E-02    6.42877E-02
    6.08016E-11
    1.90449E+00    1.90449E+00    2.72070E-01    6.49636E-02    1.66055E-01    9.46235E-02    8.10270E-02
    5.55078E-11
    2.44863E+00    1.90449E+00    2.72070E-01    7.11015E-02    8.44984E-02    1.32199E-01    8.98274E-02
    4.93967E-11
    2.99277E+00    1.90449E+00    2.72070E-01    7.25987E-02   -5.33479E-03    1.56829E-01    8.98280E-02
    4.21593E-11
    3.53691E+00    1.90449E+00    2.72070E-01    6.93377E-02   -9.46433E-02    1.66102E-01    8.10296E-02
    3.39471E-11
    4.08105E+00    1.90449E+00    2.72070E-01    6.27506E-02   -1.74679E-01    1.59111E-01    6.42964E-02
    2.51123E-11
    4.62519E+00    1.90449E+00    2.72070E-01    5.53100E-02   -2.37606E-01    1.36546E-01    4.12699E-02
    1.58813E-11
    5.16933E+00    1.90449E+00    2.72070E-01    4.96285E-02   -2.77267E-01    1.00621E-01    1.42072E-02
    6.41067E-12
    5.71347E+00    1.90449E+00    2.72070E-01    4.75017E-02   -2.89787E-01    5.48567E-02   -1.42415E-02
   -3.18979E-12
    6.25761E+00    1.90449E+00    2.72070E-01    4.92485E-02   -2.73945E-01    3.73211E-03   -4.12922E-02
   -1.28311E-11
    6.80175E+00    1.90449E+00    2.72070E-01    5.36112E-02   -2.31296E-01   -4.77517E-02   -6.42992E-02
   -2.24167E-11
    7.34589E+00    1.90449E+00    2.72070E-01    5.82788E-02   -1.66015E-01   -9.45596E-02   -8.10130E-02
   -3.18027E-11
    7.89003E+00    1.90449E+00    2.72070E-01    6.08463E-02   -8.44881E-02   -1.32113E-01   -8.97991E-02
   -4.07551E-11
    8.43417E+00    1.90449E+00    2.72070E-01    5.98339E-02    5.30789E-03   -1.56737E-01   -8.97984E-02
   -4.88728E-11
    8.97831E+00    1.90449E+00    2.72070E-01    5.53456E-02    9.45864E-02   -1.66019E-01   -8.10103E-02
   -5.59172E-11
    9.52245E+00    1.90449E+00    2.72070E-01    4.91063E-02    1.74609E-01   -1.59048E-01   -6.42928E-02
   -6.21043E-11
    1.00666E+01    1.90449E+00    2.72070E-01    4.39287E-02    2.37536E-01   -1.36505E-01   -4.12758E-02
   -5.86776E-11
    1.06107E+01    1.90449E+00    2.72070E-01    7.12757E-02    2.77127E-01   -1.00672E-01   -1.41507E-02
   -3.90349E-11
    2.72070E-01    2.44863E+00    2.72070E-01   -4.27127E-03    3.16316E-01   -7.83273E-02    1.57054E-02
    3.34675E-11
    8.16210E-01    2.44863E+00    2.72070E-01    3.96555E-02    2.89787E-01   -5.48380E-02    4.57261E-02
    5.04905E-11
    1.36035E+00    2.44863E+00    2.72070E-01    5.48738E-02    2.34797E-01   -2.60335E-02    7.12695E-02
    5.37390E-11
    1.90449E+00    2.44863E+00    2.72070E-01    6.90840E-02    1.56791E-01    5.32272E-03    8.98276E-02
    4.88500E-11
    2.44863E+00    2.44863E+00    2.72070E-01    7.81832E-02    6.34191E-02    3.61612E-02    9.95851E-02
    4.32467E-11
    2.99277E+00    2.44863E+00    2.72070E-01    7.94466E-02   -3.61673E-02    6.34608E-02    9.95859E-02
    3.66891E-11
    3.53691E+00    2.44863E+00    2.72070E-01    7.27977E-02   -1.32210E-01    8.45469E-02    8.98307E-02
    2.93479E-11
    4.08105E+00    2.44863E+00    2.72070E-01    6.09046E-02   -2.15299E-01    9.73554E-02    7.12783E-02
    2.15528E-11
    4.62519E+00    2.44863E+00    2.72070E-01    4.82057E-02   -2.77300E-01    1.00635E-01    4.57498E-02
    1.35013E-11
    5.16933E+00    2.44863E+00    2.72070E-01    3.92651E-02   -3.12148E-01    9.40664E-02    1.57484E-02
    5.30836E-12
    5.71347E+00    2.44863E+00    2.72070E-01    3.70744E-02   -3.16440E-01    7.82960E-02   -1.57876E-02
   -2.96888E-12
    6.25761E+00    2.44863E+00    2.72070E-01    4.19376E-02   -2.89762E-01    5.48672E-02   -4.57725E-02
   -1.13027E-11
    6.80175E+00    2.44863E+00    2.72070E-01    5.13769E-02   -2.34731E-01    2.60712E-02   -7.12744E-02
   -1.96595E-11
    7.34589E+00    2.44863E+00    2.72070E-01    6.11210E-02   -1.56732E-01   -5.27566E-03   -8.98003E-02
   -2.79537E-11
    7.89003E+00    2.44863E+00    2.72070E-01    6.68105E-02   -6.33982E-02   -3.61063E-02   -9.95391E-02
   -3.59973E-11
    8.43417E+00    2.44863E+00    2.72070E-01    6.57556E-02    3.61396E-02   -6.34021E-02   -9.95385E-02
   -4.34223E-11
    8.97831E+00    2.44863E+00    2.72070E-01    5.80494E-02    1.32142E-01   -8.44893E-02   -8.97980E-02
   -4.99745E-11
    9.52245E+00    2.44863E+00    2.72070E-01    4.66183E-02    2.15214E-01   -9.73019E-02   -7.12685E-02
   -5.58013E-11
    1.00666E+01    2.44863E+00    2.72070E-01    3.62851E-02    2.77216E-01   -1.00587E-01   -4.57561E-02
   -5.29514E-11
    1.06107E+01    2.44863E+00    2.72070E-01    6.31633E-02    3.11989E-01   -9.40860E-02   -1.56867E-02
   -3.53494E-11
    2.72070E-01    2.99277E+00    2.72070E-01   -3.60535E-03    3.11993E-01   -9.41646E-02    1.57039E-02
    2.81208E-11
    8.16210E-01    2.99277E+00    2.72070E-01    3.84204E-02    2.77240E-01   -1.00586E-01    4.57319E-02
    4.23615E-11
    1.36035E+00    2.99277E+00    2.72070E-01    5.38039E-02    2.15254E-01   -9.73094E-02    7.12724E-02
    4.49672E-11
    1.90449E+00    2.99277E+00    2.72070E-01    6.81088E-02    1.32166E-01   -8.45060E-02    8.98293E-02
    4.07041E-11
    2.44863E+00    2.99277E+00    2.72070E-01    7.72062E-02    3.61229E-02   -6.34238E-02    9.95864E-02
    3.58411E-11
    2.99277E+00    2.99277E+00    2.72070E-01    7.84015E-02   -6.34626E-02   -3.61268E-02    9.95871E-02
    3.02083E-11
    3.53691E+00    2.99277E+00    2.72070E-01    7.16587E-02   -1.56832E-01   -5.28943E-03    8.98321E-02
    2.39785E-11
    4.08105E+00    2.99277E+00    2.72070E-01    5.96832E-02   -2.34839E-01    2.60670E-02    7.12799E-02
    1.74455E-11
    4.62519E+00    2.99277E+00    2.72070E-01    4.69428E-02   -2.89846E-01    5.48715E-02    4.57516E-02
    1.07752E-11
    5.16933E+00    2.99277E+00    2.72070E-01    3.80194E-02   -3.16472E-01    7.83041E-02    1.57502E-02
    4.04686E-12
    5.71347E+00    2.99277E+00    2.72070E-01    3.59047E-02   -3.12119E-01    9.40716E-02   -1.57860E-02
   -2.72629E-12
    6.25761E+00    2.99277E+00    2.72070E-01    4.08830E-02   -2.77219E-01    1.00631E-01   -4.57714E-02
   -9.56700E-12
    6.80175E+00    2.99277E+00    2.72070E-01    5.04423E-02   -2.15191E-01    9.73406E-02   -7.12738E-02
   -1.64967E-11
    7.34589E+00    2.99277E+00    2.72070E-01    6.02723E-02   -1.32109E-01    8.45224E-02   -8.98001E-02
   -2.34837E-11
    7.89003E+00    2.99277E+00    2.72070E-01    6.59814E-02   -3.61010E-02    6.34324E-02   -9.95391E-02
   -3.03888E-11
    8.43417E+00    2.99277E+00    2.72070E-01    6.48591E-02    6.34384E-02    3.61371E-02   -9.95386E-02
   -3.68896E-11
    8.97831E+00    2.99277E+00    2.72070E-01    5.69906E-02    1.56770E-01    5.31023E-03   -8.97981E-02
   -4.27311E-11
    9.52245E+00    2.99277E+00    2.72070E-01    4.53123E-02    2.34760E-01   -2.60300E-02   -7.12685E-02
   -4.79895E-11
    1.00666E+01    2.99277E+00    2.72070E-01    3.46874E-02    2.89767E-01   -5.48179E-02   -4.57558E-02
   -4.57261E-11
    1.06107E+01    2.99277E+00    2.72070E-01    6.08248E-02    3.16314E-01   -7.82918E-02   -1.56851E-02
   -3.06199E-11
    2.72070E-01    3.53691E+00    2.72070E-01    8.34092E-03    2.77124E-01   -1.00783E-01    1.41655E-02
    2.19722E-11
    8.16210E-01    3.53691E+00    2.72070E-01    4.24555E-02    2.37541E-01   -1.36495E-01    4.12618E-02
    3.30696E-11
    1.36035E+00    3.53691E+00    2.72070E-01    5.29411E-02    1.74627E-01   -1.59063E-01    6.42965E-02
    3.50339E-11
    1.90449E+00    3.53691E+00    2.72070E-01    6.23307E-02    9.45929E-02   -1.66062E-01    8.10326E-02
    3.16037E-11
    2.44863E+00    3.53691E+00    2.72070E-01    6.83845E-02    5.28474E-03   -1.56797E-01    8.98320E-02
    2.76964E-11
    2.99277E+00    3.53691E+00    2.72070E-01    6.96273E-02   -8.45465E-02   -1.32174E-01    8.98324E-02
    2.31959E-11
    3.53691E+00    3.53691E+00    2.72070E-01    6.60566E-02   -1.66099E-01   -9.46053E-02    8.10344E-02
    1.82574E-11
    4.08105E+00    3.53691E+00    2.72070E-01    5.92101E-02   -2.31386E-01   -4.77718E-02    6.43017E-02
    1.31253E-11
    4.62519E+00    3.53691E+00    2.72070E-01    5.16427E-02   -2.74014E-01    3.73704E-03    4.12756E-02
    7.93499E-12
    5.16933E+00    3.53691E+00    2.72070E-01    4.60127E-02   -2.89815E-01    5.48759E-02    1.42127E-02
    2.74018E-12
    5.71347E+00    3.53691E+00    2.72070E-01    4.41106E-02   -2.77246E-01    1.00638E-01   -1.42368E-02
   -2.47192E-12
    6.25761E+00    3.53691E+00    2.72070E-01    4.61944E-02   -2.37542E-01    1.36544E-01   -4.12889E-02
   -7.75533E-12
    6.80175E+00    3.53691E+00    2.72070E-01    5.09051E-02   -1.74592E-01    1.59082E-01   -6.42976E-02
   -1.31685E-11
    7.34589E+00    3.53691E+00    2.72070E-01    5.58193E-02   -9.45566E-02    1.66048E-01   -8.10128E-02
   -1.87221E-11
    7.89003E+00    3.53691E+00    2.72070E-01    5.84393E-02   -5.27003E-03    1.56764E-01   -8.97998E-02
   -2.43243E-11
    8.43417E+00    3.53691E+00    2.72070E-01    5.72233E-02    8.45309E-02    1.32142E-01   -8.97993E-02
   -2.97087E-11
    8.97831E+00    3.53691E+00    2.72070E-01    5.22450E-02    1.66059E-01    9.45927E-02   -8.10109E-02
   -3.46378E-11
    9.52245E+00    3.53691E+00    2.72070E-01    4.52432E-02    2.31335E-01    4.77922E-02   -6.42928E-02
   -3.91304E-11
    1.00666E+01    3.53691E+00    2.72070E-01    3.91376E-02    2.73961E-01   -3.68135E-03   -4.12750E-02
   -3.74433E-11
    1.06107E+01    3.53691E+00    2.72070E-01    6.45419E-02    2.89681E-01   -5.48318E-02   -1.41473E-02
   -2.51566E-11
    2.72070E-01    4.08105E+00    2.72070E-01    2.80178E-02    2.15124E-01   -9.75284E-02    1.12421E-02
    1.52778E-11
    8.16210E-01    4.08105E+00    2.72070E-01    4.99943E-02    1.74584E-01   -1.59049E-01    3.27522E-02
    2.30124E-11
    1.36035E+00    4.08105E+00    2.72070E-01    5.23004E-02    1.16899E-01   -2.05246E-01    5.10255E-02
    2.43741E-11
    1.90449E+00    4.08105E+00    2.72070E-01    5.35816E-02    4.77553E-02   -2.31356E-01    6.43009E-02
    2.19606E-11
    2.44863E+00    4.08105E+00    2.72070E-01    5.46629E-02   -2.60734E-02   -2.34812E-01    7.12802E-02
    1.91944E-11
    2.99277E+00    4.08105E+00    2.72070E-01    5.60095E-02   -9.73543E-02   -2.15273E-01    7.12803E-02
    1.59950E-11
    3.53691E+00    4.08105E+00    2.72070E-01    5.76390E-02   -1.59106E-01   -1.74652E-01    6.43016E-02
    1.24789E-11
    4.08105E+00    4.08105E+00    2.72070E-01    5.91758E-02   -2.05280E-01   -1.16930E-01    5.10279E-02
    8.82909E-12
    4.62519E+00    4.08105E+00    2.72070E-01    6.00586E-02   -2.31358E-01   -4.77630E-02    3.27595E-02
    5.15191E-12
    5.16933E+00    4.08105E+00    2.72070E-01    5.98153E-02   -2.34788E-01    2.60736E-02    1.12853E-02
    1.48852E-12
    5.71347E+00    4.08105E+00    2.72070E-01    5.82799E-02   -2.15235E-01    9.73500E-02   -1.12927E-02
   -2.17957E-12
    6.25761E+00    4.08105E+00    2.72070E-01    5.56675E-02   -1.74615E-01    1.59090E-01   -3.27644E-02
   -5.91394E-12
    6.80175E+00    4.08105E+00    2.72070E-01    5.24985E-02   -1.16904E-01    2.05253E-01   -5.10286E-02
   -9.78811E-12
    7.34589E+00    4.08105E+00    2.72070E-01    4.94273E-02   -4.77505E-02    2.31325E-01   -6.42978E-02
   -1.38406E-11
    7.89003E+00    4.08105E+00    2.72070E-01    4.70451E-02    2.60763E-02    2.34758E-01   -7.12734E-02
   -1.80215E-11
    8.43417E+00    4.08105E+00    2.72070E-01    4.57185E-02    9.73506E-02    2.15218E-01   -7.12728E-02
   -2.21310E-11
    8.97831E+00    4.08105E+00    2.72070E-01    4.55032E-02    1.59097E-01    1.74621E-01   -6.42958E-02
   -2.59679E-11
    9.52245E+00    4.08105E+00    2.72070E-01    4.61803E-02    2.05270E-01    1.16938E-01   -5.10241E-02
   -2.95108E-11
    1.00666E+01    4.08105E+00    2.72070E-01    4.74812E-02    2.31345E-01    4.78146E-02   -3.27523E-02
   -2.83611E-11
    1.06107E+01    4.08105E+00    2.72070E-01    7.15260E-02    2.34694E-01   -2.59963E-02   -1.12244E-02
   -1.91227E-11
    2.72070E-01    4.62519E+00    2.72070E-01    4.95757E-02    1.32066E-01   -8.47168E-02    7.22032E-03
    8.27816E-12
    8.16210E-01    4.62519E+00    2.72070E-01    5.77869E-02    9.45353E-02   -1.66039E-01    2.10349E-02
    1.25425E-11
    1.36035E+00    4.62519E+00    2.72070E-01    5.16405E-02    4.77293E-02   -2.31337E-01    3.27593E-02
    1.33529E-11
    1.90449E+00    4.62519E+00    2.72070E-01    4.46567E-02   -3.75668E-03   -2.73996E-01    4.12757E-02
    1.20954E-11
    2.44863E+00    4.62519E+00    2.72070E-01    4.07005E-02   -5.48798E-02   -2.89829E-01    4.57523E-02
    1.06100E-11
    2.99277E+00    4.62519E+00    2.72070E-01    4.21498E-02   -1.00634E-01   -2.77285E-01    4.57520E-02
    8.83443E-12
    3.53691E+00    4.62519E+00    2.72070E-01    4.90273E-02   -1.36540E-01   -2.37591E-01    4.12751E-02
    6.82845E-12
    4.08105E+00    4.62519E+00    2.72070E-01    5.90389E-02   -1.59083E-01   -1.74636E-01    3.27590E-02
    4.70380E-12
    4.62519E+00    4.62519E+00    2.72070E-01    6.85037E-02   -1.66057E-01   -9.45872E-02    2.10360E-02
    2.53877E-12
    5.16933E+00    4.62519E+00    2.72070E-01    7.38056E-02   -1.56778E-01   -5.28383E-03    7.25229E-03
    3.73220E-13
    5.71347E+00    4.62519E+00    2.72070E-01    7.27978E-02   -1.32155E-01    8.45300E-02   -7.24382E-03
   -1.79849E-12
    6.25761E+00    4.62519E+00    2.72070E-01    6.56263E-02   -9.45938E-02    1.66063E-01   -2.10332E-02
   -4.02372E-12
    6.80175E+00    4.62519E+00    2.72070E-01    5.46755E-02   -4.77709E-02    2.31337E-01   -3.27650E-02
   -6.37023E-12
    7.34589E+00    4.62519E+00    2.72070E-01    4.36765E-02    3.73131E-03    2.73966E-01   -4.12894E-02
   -8.88867E-12
    7.89003E+00    4.62519E+00    2.72070E-01    3.63200E-02    5.48712E-02    2.89781E-01   -4.57709E-02
   -1.15669E-11
    8.43417E+00    4.62519E+00    2.72070E-01    3.48887E-02    1.00642E-01    2.77237E-01   -4.57702E-02
   -1.42790E-11
    8.97831E+00    4.62519E+00    2.72070E-01    3.94151E-02    1.36562E-01    2.37562E-01   -4.12873E-02
   -1.68777E-11
    9.52245E+00    4.62519E+00    2.72070E-01    4.76988E-02    1.59114E-01    1.74639E-01   -3.27606E-02
   -1.93192E-11
    1.00666E+01    4.62519E+00    2.72070E-01    5.62424E-02    1.66086E-01    9.46271E-02   -2.10230E-02
   -1.86680E-11
    1.06107E+01    4.62519E+00    2.72070E-01    7.70491E-02    1.56735E-01    5.39607E-03   -7.20276E-03
   -1.26481E-11
    2.72070E-01    5.16933E+00    2.72070E-01    6.70397E-02    3.60809E-02   -6.36071E-02    2.49358E-03
    1.18046E-12
    8.16210E-01    5.16933E+00    2.72070E-01    6.24730E-02    5.23743E-03   -1.56779E-01    7.25571E-03
    1.95467E-12
    1.36035E+00    5.16933E+00    2.72070E-01    5.06857E-02   -2.61073E-02   -2.34783E-01    1.12867E-02
    2.25886E-12
    1.90449E+00    5.16933E+00    2.72070E-01    3.83653E-02   -5.48969E-02   -2.89810E-01    1.42135E-02
    2.23895E-12
    2.44863E+00    5.16933E+00    2.72070E-01    3.11967E-02   -7.83140E-02   -3.16468E-01    1.57512E-02
    2.11681E-12
    2.99277E+00    5.16933E+00    2.72070E-01    3.27040E-02   -9.40672E-02   -3.12145E-01    1.57506E-02
    1.83686E-12
    3.53691E+00    5.16933E+00    2.72070E-01    4.29002E-02   -1.00616E-01   -2.77266E-01    1.42119E-02
    1.38972E-12
    4.08105E+00    5.16933E+00    2.72070E-01    5.83079E-02   -9.73216E-02   -2.15244E-01    1.12843E-02
    8.09788E-13
    4.62519E+00    5.16933E+00    2.72070E-01    7.33185E-02   -8.45066E-02   -1.32152E-01    7.25176E-03
    1.47197E-13
    5.16933E+00    5.16933E+00    2.72070E-01    8.23539E-02   -6.34242E-02   -3.61263E-02    2.50654E-03
   -5.52796E-13
    5.71347E+00    5.16933E+00    2.72070E-01    8.20015E-02   -3.61353E-02    6.34333E-02   -2.48852E-03
   -1.27117E-12
    6.25761E+00    5.16933E+00    2.72070E-01    7.23134E-02   -5.30734E-03    1.56781E-01   -7.24435E-03
   -2.02542E-12
    6.80175E+00    5.16933E+00    2.72070E-01    5.67866E-02    2.60449E-02    2.34780E-01   -1.12937E-02
   -2.86245E-12
    7.34589E+00    5.16933E+00    2.72070E-01    4.10380E-02    5.48537E-02    2.89797E-01   -1.42376E-02
   -3.83331E-12
    7.89003E+00    5.16933E+00    2.72070E-01    3.06778E-02    7.82985E-02    3.16449E-01   -1.57856E-02
   -4.95854E-12
    8.43417E+00    5.16933E+00    2.72070E-01    2.91780E-02    9.40823E-02    3.12127E-01   -1.57849E-02
   -6.19166E-12
    8.97831E+00    5.16933E+00    2.72070E-01    3.65465E-02    1.00658E-01    2.77254E-01   -1.42355E-02
   -7.45191E-12
    9.52245E+00    5.16933E+00    2.72070E-01    4.93237E-02    9.73803E-02    2.15246E-01   -1.12899E-02
   -8.68646E-12
    1.00666E+01    5.16933E+00    2.72070E-01    6.19538E-02    8.45662E-02    1.32173E-01   -7.23672E-03
   -8.51174E-12
    1.06107E+01    5.16933E+00    2.72070E-01    7.64274E-02    6.34329E-02    3.62727E-02   -2.47603E-03
   -5.84181E-12
    2.72070E-01    5.71347E+00    2.72070E-01    7.64274E-02   -6.34329E-02   -3.62727E-02   -2.47603E-03
   -5.84183E-12
    8.16210E-01    5.71347E+00    2.72070E-01    6.19538E-02   -8.45663E-02   -1.32173E-01   -7.23673E-03
   -8.51179E-12
    1.36035E+00    5.71347E+00    2.72070E-01    4.93237E-02   -9.73803E-02   -2.15246E-01   -1.12899E-02
   -8.68651E-12
    1.90449E+00    5.71347E+00    2.72070E-01    3.65465E-02   -1.00658E-01   -2.77254E-01   -1.42355E-02
   -7.45197E-12
    2.44863E+00    5.71347E+00    2.72070E-01    2.91780E-02   -9.40823E-02   -3.12127E-01   -1.57849E-02
   -6.19162E-12
    2.99277E+00    5.71347E+00    2.72070E-01    3.06778E-02   -7.82985E-02   -3.16449E-01   -1.57856E-02
   -4.95857E-12
    3.53691E+00    5.71347E+00    2.72070E-01    4.10380E-02   -5.48537E-02   -2.89797E-01   -1.42376E-02
   -3.83323E-12
    4.08105E+00    5.71347E+00    2.72070E-01    5.67866E-02   -2.60449E-02   -2.34780E-01   -1.12937E-02
   -2.86242E-12
    4.62519E+00    5.71347E+00    2.72070E-01    7.23135E-02    5.30741E-03   -1.56781E-01   -7.24435E-03
   -2.02542E-12
    5.16933E+00    5.71347E+00    2.72070E-01    8.20015E-02    3.61354E-02   -6.34332E-02   -2.48852E-03
   -1.27114E-12
    5.71347E+00    5.71347E+00    2.72070E-01    8.23539E-02    6.34243E-02    3.61263E-02    2.50654E-03
   -5.52791E-13
    6.25761E+00    5.71347E+00    2.72070E-01    7.33185E-02    8.45067E-02    1.32152E-01    7.25177E-03
    1.47181E-13
    6.80175E+00    5.71347E+00    2.72070E-01    5.83079E-02    9.73217E-02    2.15244E-01    1.12843E-02
    8.09853E-13
    7.34589E+00    5.71347E+00    2.72070E-01    4.29002E-02    1.00616E-01    2.77266E-01    1.42119E-02
    1.38980E-12
    7.89003E+00    5.71347E+00    2.72070E-01    3.27040E-02    9.40672E-02    3.12145E-01    1.57506E-02
    1.83681E-12
    8.43417E+00    5.71347E+00    2.72070E-01    3.11967E-02    7.83139E-02    3.16468E-01    1.57512E-02
    2.11697E-12
    8.97831E+00    5.71347E+00    2.72070E-01    3.83653E-02    5.48968E-02    2.89810E-01    1.42135E-02
    2.23901E-12
    9.52245E+00    5.71347E+00    2.72070E-01    5.06857E-02    2.61072E-02    2.34783E-01    1.12868E-02
    2.25887E-12
    1.00666E+01    5.71347E+00    2.72070E-01    6.24730E-02   -5.23750E-03    1.56779E-01    7.25571E-03
    1.95464E-12
    1.06107E+01    5.71347E+00    2.72070E-01    6.70397E-02   -3.60810E-02    6.36071E-02    2.49358E-03
    1.18047E-12
    2.72070E-01    6.25761E+00    2.72070E-01    7.70491E-02   -1.56735E-01   -5.39611E-03   -7.20277E-03
   -1.26481E-11
    8.16210E-01    6.25761E+00    2.72070E-01    5.62424E-02   -1.66086E-01   -9.46272E-02   -2.10231E-02
   -1.86680E-11
    1.36035E+00    6.25761E+00    2.72070E-01    4.76987E-02   -1.59114E-01   -1.74639E-01   -3.27606E-02
   -1.93192E-11
    1.90449E+00    6.25761E+00    2.72070E-01    3.94151E-02   -1.36562E-01   -2.37562E-01   -4.12873E-02
   -1.68777E-11
    2.44863E+00    6.25761E+00    2.72070E-01    3.48887E-02   -1.00642E-01   -2.77237E-01   -4.57703E-02
   -1.42790E-11
    2.99277E+00    6.25761E+00    2.72070E-01    3.63200E-02   -5.48711E-02   -2.89781E-01   -4.57710E-02
   -1.15669E-11
    3.53691E+00    6.25761E+00    2.72070E-01    4.36765E-02   -3.73125E-03   -2.73966E-01   -4.12894E-02
   -8.88871E-12
    4.08105E+00    6.25761E+00    2.72070E-01    5.46755E-02    4.77710E-02   -2.31337E-01   -3.27650E-02
   -6.37025E-12
    4.62519E+00    6.25761E+00    2.72070E-01    6.56263E-02    9.45939E-02   -1.66063E-01   -2.10332E-02
   -4.02372E-12
    5.16933E+00    6.25761E+00    2.72070E-01    7.27978E-02    1.32155E-01   -8.45300E-02   -7.24382E-03
   -1.79850E-12
    5.71347E+00    6.25761E+00    2.72070E-01    7.38056E-02    1.56778E-01    5.28386E-03    7.25230E-03
    3.73252E-13
    6.25761E+00    6.25761E+00    2.72070E-01    6.85037E-02    1.66057E-01    9.45873E-02    2.10360E-02
    2.53875E-12
    6.80175E+00    6.25761E+00    2.72070E-01    5.90389E-02    1.59083E-01    1.74636E-01    3.27590E-02
    4.70384E-12
    7.34589E+00    6.25761E+00    2.72070E-01    4.90273E-02    1.36540E-01    2.37591E-01    4.12751E-02
    6.82839E-12
    7.89003E+00    6.25761E+00    2.72070E-01    4.21498E-02    1.00634E-01    2.77285E-01    4.57520E-02
    8.83449E-12
    8.43417E+00    6.25761E+00    2.72070E-01    4.07005E-02    5.48798E-02    2.89829E-01    4.57523E-02
    1.06099E-11
    8.97831E+00    6.25761E+00    2.72070E-01    4.46567E-02    3.75662E-03    2.73996E-01    4.12757E-02
    1.20953E-11
    9.52245E+00    6.25761E+00    2.72070E-01    5.16405E-02   -4.77294E-02    2.31337E-01    3.27593E-02
    1.33528E-11
    1.00666E+01    6.25761E+00    2.72070E-01    5.77869E-02   -9.45354E-02    1.66039E-01    2.10349E-02
    1.25425E-11
    1.06107E+01    6.25761E+00    2.72070E-01    4.95757E-02   -1.32066E-01    8.47168E-02    7.22031E-03
    8.27817E-12
    2.72070E-01    6.80175E+00    2.72070E-01    7.15260E-02   -2.34694E-01    2.59963E-02   -1.12244E-02
   -1.91227E-11
    8.16210E-01    6.80175E+00    2.72070E-01    4.74812E-02   -2.31345E-01   -4.78146E-02   -3.27523E-02
   -2.83611E-11
    1.36035E+00    6.80175E+00    2.72070E-01    4.61803E-02   -2.05270E-01   -1.16938E-01   -5.10241E-02
   -2.95109E-11
    1.90449E+00    6.80175E+00    2.72070E-01    4.55032E-02   -1.59097E-01   -1.74621E-01   -6.42958E-02
   -2.59679E-11
    2.44863E+00    6.80175E+00    2.72070E-01    4.57185E-02   -9.73506E-02   -2.15218E-01   -7.12728E-02